
Host: oohnohnoh1-HP-Notebook

Timers On : Tue Apr 23 17:15:13 2019
Timers Off: Tue Apr 23 18:23:33 2019

Wall Time:     4099.69 seconds

                                                       Time (seconds)
Module                                       User      System        Wall        Calls

--------------------------------------------------------------------------------------

**************************************************************************************
