
Host: oohnohnoh1-HP-Notebook

Timers On : Sun Apr 21 00:13:07 2019
Timers Off: Sun Apr 21 00:14:33 2019

Wall Time:       85.30 seconds

                                                       Time (seconds)
Module                                       User      System        Wall        Calls

--------------------------------------------------------------------------------------

**************************************************************************************
