
Host: noh-SATELLITE-PRO-C50-A-136

Timers On : Sun Jan 20 21:54:41 2019
Timers Off: Mon Jan 21 13:11:54 2019

Wall Time:    55032.41 seconds


-----------------------------------------------------------

***********************************************************
