
Host: sang-Lenovo-IdeaPad-S540-15IML

Timers On : Tue Apr  4 15:01:05 2023
Timers Off: Tue Apr  4 15:17:28 2023

Wall Time:      982.84 seconds

                                                       Time (seconds)
Module                                       User      System        Wall        Calls

--------------------------------------------------------------------------------------

**************************************************************************************
