
Host: noh-SATELLITE-PRO-C50-A-136

Timers On : Wed Jan 16 16:15:54 2019
Timers Off: Wed Jan 16 16:19:01 2019

Wall Time:      187.30 seconds


-----------------------------------------------------------

***********************************************************
