
Host: noh-SATELLITE-PRO-C50-A-136

Timers On : Wed Jan 30 21:40:16 2019
Timers Off: Wed Jan 30 21:42:51 2019

Wall Time:      155.25 seconds


-----------------------------------------------------------

***********************************************************
